 Q-Chem 6.0 (devel), Q-Chem, Inc., Pleasanton, CA (2022)
 Q-Chem 6.0.1 for Intel X86 EM64T Linux

User input:
--------------------------------------------------------------
$molecule
read opt.txt
$end

$rem
jobtype = opt
exchange = wB97XD
correlation = none
basis = 6-31G*
iqmol_fchk = true
scf_convergence = 8
max_scf_cycles = 5000
mem_static = 6000
mem_total = 56000
$end

--------------------------------------------------------------

   17   -2285.4950748725      8.88e-09  Convergence criterion met
 Total energy in the final basis set =    -2285.4950748725
   17   -2285.4993381443      6.07e-09  Convergence criterion met
 Total energy in the final basis set =    -2285.4993381443
   15   -2285.4998273244      9.52e-09  Convergence criterion met
 Total energy in the final basis set =    -2285.4998273244
   14   -2285.4998912297      5.53e-09  Convergence criterion met
 Total energy in the final basis set =    -2285.4998912297
   12   -2285.4999031520      8.16e-09  Convergence criterion met
 Total energy in the final basis set =    -2285.4999031520
   11   -2285.4999068868      9.09e-09  Convergence criterion met
 Total energy in the final basis set =    -2285.4999068868
   11   -2285.4999077130      5.16e-09  Convergence criterion met
 Total energy in the final basis set =    -2285.4999077130

             Orbital Energies (a.u.) and Symmetries
 --------------------------------------------------------------

 Alpha MOs, Unrestricted
 -- Occupied --
-10.232 -10.232 -10.231 -10.231 -10.230 -10.230 -10.230 -10.230
  1 Au    1 Ag    2 Ag    2 Au    3 Ag    3 Au    4 Au    4 Ag
-10.230 -10.230 -10.229 -10.229 -10.229 -10.229 -10.229 -10.229
  5 Ag    5 Au    6 Au    6 Ag    7 Ag    7 Au    8 Ag    8 Au
-10.228 -10.228 -10.228 -10.228 -10.227 -10.227 -10.227 -10.227
  9 Au    9 Ag   10 Ag   10 Au   11 Ag   11 Au   12 Au   12 Ag
-10.227 -10.227 -10.227 -10.227 -10.227 -10.227 -10.227 -10.227
 13 Ag   13 Au   14 Au   14 Ag   15 Ag   15 Au   16 Au   16 Ag
-10.226 -10.226 -10.226 -10.226 -10.225 -10.225 -10.225 -10.225
 17 Ag   17 Au   18 Ag   18 Au   19 Au   19 Ag   20 Ag   20 Au
-10.225 -10.225 -10.225 -10.225 -10.224 -10.224 -10.223 -10.223
 21 Au   21 Ag   22 Ag   22 Au   23 Ag   23 Au   24 Ag   24 Au
-10.223 -10.223 -10.223 -10.223 -10.222 -10.222 -10.222 -10.222
 25 Ag   25 Au   26 Au   26 Ag   27 Au   27 Ag   28 Ag   28 Au
-10.221 -10.221 -10.221 -10.221  -0.959  -0.941  -0.938  -0.938
 29 Ag   29 Au   30 Au   30 Ag   31 Ag   31 Au   32 Au   33 Au
 -0.902  -0.901  -0.901  -0.899  -0.899  -0.861  -0.860  -0.859
 32 Ag   33 Ag   34 Ag   35 Ag   36 Ag   34 Au   35 Au   36 Au
 -0.827  -0.827  -0.826  -0.824  -0.776  -0.775  -0.775  -0.774
 37 Au   38 Au   39 Au   40 Au   37 Ag   38 Ag   39 Ag   40 Ag
 -0.774  -0.758  -0.757  -0.756  -0.756  -0.701  -0.700  -0.699
 41 Ag   42 Ag   43 Ag   44 Ag   45 Ag   41 Au   42 Au   43 Au
 -0.697  -0.694  -0.688  -0.684  -0.684  -0.641  -0.640  -0.640
 44 Au   45 Au   46 Au   47 Au   48 Au   49 Au   50 Au   51 Au
 -0.603  -0.602  -0.601  -0.600  -0.600  -0.599  -0.599  -0.595
 46 Ag   47 Ag   48 Ag   49 Ag   50 Ag   51 Ag   52 Ag   53 Ag
 -0.573  -0.532  -0.530  -0.529  -0.529  -0.506  -0.505  -0.502
 54 Ag   55 Ag   56 Ag   57 Ag   58 Ag   52 Au   53 Au   54 Au
 -0.502  -0.500  -0.489  -0.485  -0.485  -0.463  -0.461  -0.460
 55 Au   56 Au   57 Au   58 Au   59 Au   59 Ag   60 Au   61 Au
 -0.459  -0.440  -0.437  -0.437  -0.434  -0.434  -0.434  -0.434
 62 Au   63 Au   64 Au   65 Au   66 Au   67 Au   68 Au   69 Au
 -0.414  -0.414  -0.412  -0.410  -0.410  -0.399  -0.398  -0.396
 60 Ag   61 Ag   62 Ag   63 Ag   64 Ag   65 Ag   66 Ag   67 Ag
 -0.396  -0.392  -0.391  -0.391  -0.389  -0.389  -0.388  -0.386
 68 Ag   69 Ag   70 Ag   71 Ag   72 Ag   73 Ag   74 Ag   75 Ag
 -0.386  -0.367  -0.367  -0.365  -0.362  -0.332  -0.331  -0.329
 76 Ag   70 Au   71 Au   72 Au   73 Au   74 Au   75 Au   76 Au
 -0.323  -0.323  -0.321  -0.320  -0.320  -0.312  -0.312  -0.311
 77 Ag   78 Ag   79 Ag   80 Ag   81 Ag   77 Au   78 Au   79 Au
 -0.310  -0.309  -0.309  -0.308  -0.306  -0.305  -0.235  -0.234
 80 Au   81 Au   82 Au   83 Au   84 Au   85 Au   82 Ag   83 Ag
 -0.233  -0.233  -0.232  -0.229  -0.228  -0.224  -0.224  -0.177
 84 Ag   85 Ag   86 Ag   87 Ag   88 Ag   89 Ag   90 Ag   86 Au
 -0.176  -0.170  -0.168  -0.163  -0.075
 87 Au   88 Au   89 Au   90 Au   91 Au

 Beta MOs, Unrestricted
 -- Occupied --
-10.232 -10.232 -10.231 -10.231 -10.230 -10.230 -10.230 -10.230
  1 Au    1 Ag    2 Ag    2 Au    3 Ag    3 Au    4 Au    4 Ag
-10.230 -10.230 -10.229 -10.229 -10.229 -10.229 -10.228 -10.228
  5 Ag    5 Au    6 Au    6 Ag    7 Ag    7 Au    8 Ag    8 Au
-10.228 -10.228 -10.228 -10.228 -10.228 -10.228 -10.228 -10.228
  9 Au    9 Ag   10 Ag   10 Au   11 Ag   11 Au   12 Au   12 Ag
-10.227 -10.227 -10.227 -10.227 -10.227 -10.227 -10.226 -10.226
 13 Ag   13 Au   14 Au   14 Ag   15 Ag   15 Au   16 Au   16 Ag
-10.226 -10.226 -10.226 -10.226 -10.225 -10.225 -10.225 -10.225
 17 Au   17 Ag   18 Ag   18 Au   19 Au   19 Ag   20 Ag   20 Au
-10.224 -10.224 -10.224 -10.224 -10.224 -10.224 -10.223 -10.223
 21 Au   21 Ag   22 Ag   22 Au   23 Au   23 Ag   24 Ag   24 Au
-10.223 -10.223 -10.222 -10.222 -10.222 -10.222 -10.221 -10.221
 25 Au   25 Ag   26 Ag   26 Au   27 Au   27 Ag   28 Au   28 Ag
-10.220 -10.220 -10.220 -10.220  -0.958  -0.941  -0.937  -0.937
 29 Au   29 Ag   30 Ag   30 Au   31 Ag   31 Au   32 Au   33 Au
 -0.901  -0.900  -0.900  -0.897  -0.897  -0.860  -0.859  -0.857
 32 Ag   33 Ag   34 Ag   35 Ag   36 Ag   34 Au   35 Au   36 Au
 -0.826  -0.826  -0.825  -0.824  -0.774  -0.774  -0.774  -0.774
 37 Au   38 Au   39 Au   40 Au   37 Ag   38 Ag   39 Ag   40 Ag
 -0.773  -0.756  -0.756  -0.755  -0.755  -0.700  -0.700  -0.698
 41 Ag   42 Ag   43 Ag   44 Ag   45 Ag   41 Au   42 Au   43 Au
 -0.696  -0.693  -0.685  -0.683  -0.683  -0.640  -0.640  -0.639
 44 Au   45 Au   46 Au   47 Au   48 Au   49 Au   50 Au   51 Au
 -0.603  -0.602  -0.600  -0.599  -0.599  -0.599  -0.598  -0.594
 46 Ag   47 Ag   48 Ag   49 Ag   50 Ag   51 Ag   52 Ag   53 Ag
 -0.573  -0.531  -0.529  -0.528  -0.528  -0.504  -0.504  -0.502
 54 Ag   55 Ag   56 Ag   57 Ag   58 Ag   52 Au   53 Au   54 Au
 -0.501  -0.499  -0.488  -0.485  -0.485  -0.460  -0.460  -0.460
 55 Au   56 Au   57 Au   58 Au   59 Au   59 Ag   60 Au   61 Au
 -0.459  -0.439  -0.434  -0.434  -0.433  -0.433  -0.433  -0.433
 62 Au   63 Au   64 Au   65 Au   66 Au   67 Au   68 Au   69 Au
 -0.414  -0.413  -0.411  -0.410  -0.409  -0.398  -0.397  -0.396
 60 Ag   61 Ag   62 Ag   63 Ag   64 Ag   65 Ag   66 Ag   67 Ag
 -0.396  -0.390  -0.389  -0.389  -0.387  -0.387  -0.385  -0.385
 68 Ag   69 Ag   70 Ag   71 Ag   72 Ag   73 Ag   74 Ag   75 Ag
 -0.385  -0.367  -0.366  -0.364  -0.362  -0.329  -0.327  -0.323
 76 Ag   70 Au   71 Au   72 Au   73 Au   74 Au   75 Au   76 Au
 -0.322  -0.322  -0.320  -0.319  -0.319  -0.311  -0.310  -0.309
 77 Ag   78 Ag   79 Ag   80 Ag   81 Ag   77 Au   78 Au   79 Au
 -0.308  -0.307  -0.306  -0.306  -0.305  -0.305  -0.230  -0.230
 80 Au   81 Au   82 Au   83 Au   84 Au   85 Au   82 Ag   83 Ag
 -0.229  -0.228  -0.225  -0.224  -0.222  -0.220  -0.220  -0.172
 84 Ag   85 Ag   86 Ag   87 Ag   88 Ag   89 Ag   90 Ag   86 Au
 -0.171  -0.170  -0.166  -0.162
 87 Au   88 Au   89 Au   90 Au

          Ground-State Mulliken Net Atomic Charges

     Atom                 Charge (a.u.)    Spin (a.u.)
  --------------------------------------------------------
      1 C                    -0.015877       0.010878
      2 C                    -0.019638       0.038518
      3 C                    -0.019638       0.038518
      4 C                    -0.015877       0.010878
      5 C                    -0.016073       0.010342
      6 C                    -0.013035      -0.017269
      7 C                    -0.013035      -0.017269
      8 C                    -0.016073       0.010342
      9 C                    -0.019899       0.054557
     10 C                    -0.014478      -0.000570
     11 C                    -0.014478      -0.000570
     12 C                    -0.019899       0.054557
     13 C                    -0.021939       0.061035
     14 C                    -0.015004      -0.001292
     15 C                    -0.015728      -0.002329
     16 C                    -0.021630       0.056512
     17 C                    -0.021630       0.056512
     18 C                    -0.015728      -0.002329
     19 C                    -0.015004      -0.001292
     20 C                    -0.021939       0.061035
     21 C                    -0.016244       0.010368
     22 C                    -0.018013       0.037871
     23 C                    -0.019907       0.042212
     24 C                    -0.014493       0.013580
     25 C                    -0.014493       0.013580
     26 C                    -0.019907       0.042212
     27 C                    -0.018013       0.037871
     28 C                    -0.016244       0.010368
     29 C                    -0.017082       0.010089
     30 C                    -0.013919      -0.017668
     31 C                    -0.012253      -0.014042
     32 C                    -0.015866       0.012961
     33 C                    -0.015866       0.012961
     34 C                    -0.012253      -0.014042
     35 C                    -0.013919      -0.017668
     36 C                    -0.017082       0.010089
     37 C                    -0.023781       0.074158
     38 C                    -0.013226      -0.012160
     39 C                    -0.013606      -0.016689
     40 C                    -0.016540       0.021105
     41 C                    -0.016540       0.021105
     42 C                    -0.013606      -0.016689
     43 C                    -0.013226      -0.012160
     44 C                    -0.023781       0.074158
     45 C                    -0.017672       0.019819
     46 C                    -0.013218      -0.011499
     47 C                    -0.023095       0.071748
     48 C                    -0.012510      -0.011495
     49 C                    -0.012510      -0.011495
     50 C                    -0.023095       0.071748
     51 C                    -0.013218      -0.011499
     52 C                    -0.017672       0.019819
     53 C                    -0.013299      -0.016560
     54 C                    -0.014813      -0.013419
     55 C                    -0.015348       0.021065
     56 C                    -0.021813       0.068174
     57 C                    -0.021813       0.068174
     58 C                    -0.015348       0.021065
     59 C                    -0.014813      -0.013419
     60 C                    -0.013299      -0.016560
  --------------------------------------------------------
  Sum of atomic charges =    -1.000000

                    Cartesian Multipole Moments
 -----------------------------------------------------------------
    Charge (ESU x 10^10)
                -4.8032
    Dipole Moment (Debye)
         X       0.0000      Y      -0.0000      Z      -0.0000
       Tot       0.0000
    Quadrupole Moments (Debye-Ang)
        XX    -357.2851     XY      -0.8433     YY    -354.5360
        XZ       0.6423     YZ      -2.1408     ZZ    -356.0033

 Final energy is -2285.499907712972
	**  OPTIMIZATION CONVERGED  **

             Standard Nuclear Orientation (Angstroms)
    I     Atom           X                Y                Z
 ----------------------------------------------------------------
    1      C       3.4084867537    -0.9352387943    -0.1161009558
    2      C       3.5050745054     0.4454932127     0.0607269118
    3      C      -3.5050745055    -0.4454932122    -0.0607269117
    4      C      -3.4084867538     0.9352387948     0.1161009559
    5      C       0.6889540076     0.3747441076    -3.4444292212
    6      C      -0.6958704617     0.4677434121    -3.4361350173
    7      C       0.6958704616    -0.4677434116     3.4361350175
    8      C      -0.6889540077    -0.3747441070     3.4444292214
    9      C      -0.2394584133    -3.3545466444    -1.0988547972
   10      C      -0.2441321263    -3.5288117774     0.2836523860
   11      C       0.2441321262     3.5288117779    -0.2836523858
   12      C       0.2394584132     3.3545466449     1.0988547974
   13      C       2.9232597425    -1.4809562981    -1.3552450254
   14      C       2.9099117355    -1.7594446996     0.9724560389
   15      C       3.0998244160     1.3360686468    -1.0166000310
   16      C       3.1151439846     1.0492186064     1.3062244011
   17      C      -3.1151439848    -1.0492186059    -1.3062244009
   18      C      -3.0998244160    -1.3360686464     1.0166000311
   19      C      -2.9099117357     1.7594447001    -0.9724560387
   20      C      -2.9232597425     1.4809562986     1.3552450255
   21      C       1.3366876041    -0.8930713763    -3.1435960878
   22      C       1.4914128997     1.4311835168    -2.8714890907
   23      C      -1.5068083706    -0.6929768351    -3.1339026332
   24      C      -1.3338373707     1.6319231159    -2.8496243932
   25      C       1.3338373706    -1.6319231154     2.8496243934
   26      C       1.5068083705     0.6929768357     3.1339026334
   27      C      -1.4914128998    -1.4311835164     2.8714890909
   28      C      -1.3366876042     0.8930713768     3.1435960880
   29      C       0.9550372675    -2.9002471602    -1.7702690930
   30      C      -1.3730703764    -2.7292436269    -1.7545087728
   31      C       0.9589700378    -3.2524721077     1.0426383266
   32      C      -1.3772611687    -3.0943886624     1.0644821883
   33      C       1.3772611686     3.0943886629    -1.0644821881
   34      C      -0.9589700379     3.2524721081    -1.0426383264
   35      C       1.3730703764     2.7292436275     1.7545087730
   36      C      -0.9550372675     2.9002471608     1.7702690932
   37      C       2.5356296625    -0.6225322198    -2.3961191050
   38      C       2.5325351439    -1.1771201179     2.1724931765
   39      C       2.6254924221     0.8088806991    -2.2106819022
   40      C       2.6338352905     0.2589529149     2.3539212402
   41      C      -2.6338352906    -0.2589529144    -2.3539212400
   42      C      -2.6254924221    -0.8088806986     2.2106819023
   43      C      -2.5325351440     1.1771201184    -2.1724931763
   44      C      -2.5356296626     0.6225322203     2.3961191052
   45      C       0.5544572784    -2.0084624828    -2.8493620986
   46      C       0.8824082076     2.5461110231    -2.3072672609
   47      C      -0.8806873737    -1.9131816727    -2.8459968377
   48      C      -0.5644025119     2.6448366363    -2.2987247258
   49      C       0.5644025118    -2.6448366358     2.2987247259
   50      C       0.8806873736     1.9131816732     2.8459968379
   51      C      -0.8824082077    -2.5461110226     2.3072672610
   52      C      -0.5544572785     2.0084624833     2.8493620988
   53      C       2.1088205942    -2.6342669750    -1.0438639379
   54      C      -2.4627973391    -2.3117246342    -1.0029632721
   55      C       2.1068790886    -2.8177773840     0.3969454246
   56      C      -2.4709480062    -2.4979412749     0.4325536221
   57      C       2.4709480062     2.4979412754    -0.4325536220
   58      C      -2.1068790887     2.8177773845    -0.3969454245
   59      C       2.4627973390     2.3117246347     1.0029632722
   60      C      -2.1088205943     2.6342669756     1.0438639381
 ----------------------------------------------------------------

 Total job time:  26031.81s(wall), 204261.75s(cpu)
        *  Thank you very much for using Q-Chem.  Have a nice day.  *

User input: 2 of 2

                  Welcome to Q-Chem
     A Quantum Leap Into The Future Of Chemistry

 Q-Chem 6.0 (devel), Q-Chem, Inc., Pleasanton, CA (2022)

 E. Epifanovsky,  A. T. B. Gilbert,  Xintian Feng,  Joonho Lee,  Yuezhi Mao,
 N. Mardirossian,  P. Pokhilko,  A. White,  M. Wormit,  M. P. Coons,
 A. L. Dempwolff,  Zhengting Gan,  D. Hait,  P. R. Horn,  L. D. Jacobson,
 I. Kaliman,  J. Kussmann,  A. W. Lange,  Ka Un Lao,  D. S. Levine,  Jie Liu,
 S. C. McKenzie,  A. F. Morrison,  K. Nanda,  F. Plasser,  D. R. Rehn,
 M. L. Vidal,  Zhi-Qiang You,  Ying Zhu,  B. Alam,  B. Albrecht,
 A. Aldossary,  E. Alguire,  J. H. Andersen,  V. Athavale,  D. Barton,
 K. Begam,  A. Behn,  N. Bellonzi,  Y. A. Bernard,  E. J. Berquist,
 H. Burton,  A. Carreras,  K. Carter-Fenk,  Romit Chakraborty,
 Chandrima Chakravarty,  Junhan Chen,  A. D. Chien,  K. D. Closser,
 V. Cofer-Shabica,  L. Cunha,  S. Dasgupta,  Jia Deng,  M. de Wergifosse,
 M. Diedenhofen,  Hainam Do,  S. Ehlert,  Po-Tung Fang,  S. Fatehi,
 Qingguo Feng,  T. Friedhoff,  B. Ganoe,  J. Gayvert,  Qinghui Ge,
 G. Gidofalvi,  M. Goldey,  J. Gomes,  C. Gonzalez-Espinoza,  S. Gulania,
 A. Gunina,  J. A. Gyamfi,  M. W. D. Hanson-Heine,  P. H. P. Harbach,
 A. W. Hauser,  M. F. Herbst,  M. Hernandez Vera,  M. Hodecker,
 Z. C. Holden,  S. Houck,  Xunkun Huang,  Kerwin Hui,  B. C. Huynh,
 K. Ikeda,  M. Ivanov,  Hyunjun Ji,  Zuxin Jin,  Hanjie Jiang,  B. Kaduk,
 S. Kaehler,  R. Kang,  K. Khistyaev,  Jaehoon Kim,  Yongbin Kim,
 P. Klunzinger,  Z. Koczor-Benda,  Joong Hoon Koh,  D. Kosenkov,
 Saikiran Kotaru,  L. Koulias,  T. Kowalczyk,  C. M. Krauter,  K. Kue,
 A. Kunitsa,  T. Kus,  A. Landau,  K. V. Lawler,  D. Lefrancois,  S. Lehtola,
 Rain Li,  Shaozhi Li,  Yi-Pei Li,  Jiashu Liang,  M. Liebenthal,
 Hung-Hsuan Lin,  You-Sheng Lin,  Fenglai Liu,  Kuan-Yu Liu,
 M. Loipersberger,  A. Luenser,  C. Malbon,  A. Manjanath,  P. Manohar,
 E. Mansoor,  S. F. Manzer,  Shan-Ping Mao,  A. V. Marenich,  T. Markovich,
 S. Mason,  F. Matz,  S. A. Maurer,  P. F. McLaughlin,  M. F. S. J. Menger,
 J.-M. Mewes,  S. A. Mewes,  P. Morgante,  Mohammad Mostafanejad,
 J. W. Mullinax,  K. J. Oosterbaan,  G. Paran,  V. Parravicini,
 Alexander C. Paul,  Suranjan K. Paul,  F. Pavosevic,  Zheng Pei,  S. Prager,
 E. I. Proynov,  E. Ramos,  B. Rana,  A. E. Rask,  A. Rettig,  R. M. Richard,
 F. Rob,  E. Rossomme,  T. Scheele,  M. Scheurer,  M. Schneider,
 P. E. Schneider,  N. Sergueev,  S. M. Sharada,  Hengyuan Shen,
 W. Skomorowski,  D. W. Small,  C. J. Stein,  Yingli Su,  Yu-Chuan Su,
 E. J. Sundstrom,  Zhen Tao,  J. Thirman,  Hung-Yi Tsai,  T. Tsuchimochi,
 N. M. Tubman,  C. Utku,  S. P. Veccham,  O. Vydrov,  J. Wenzel,
 Jonathan Wong,  J. Witte,  A. Yamada,  Chou-Hsun Yang,  Kun Yao,
 S. Yeganeh,  S. R. Yost,  A. Zech,  F. Zeller,  Igor Ying Zhang,
 Xing Zhang,  Yu Zhang,  D. Zuev,  A. Aspuru-Guzik,  A. T. Bell,
 N. A. Besley,  K. B. Bravaya,  B. R. Brooks,  D. Casanova,  Jeng-Da Chai,
 Hsing-Ta Chen,  S. Coriani,  C. J. Cramer,  A. E. DePrince, III,
 R. A. DiStasio Jr.,  A. Dreuw,  B. D. Dunietz,  T. R. Furlani,
 W. A. Goddard III,  S. Grimme,  S. Hammes-Schiffer,  T. Head-Gordon,
 W. J. Hehre,  Chao-Ping Hsu,  T.-C. Jagau,  Yousung Jung,  A. Klamt,
 Jing Kong,  D. S. Lambrecht,  Xiangyuan Li,  WanZhen Liang,  N. J. Mayhall,
 C. W. McCurdy,  J. B. Neaton,  T. Neudecker,  C. Ochsenfeld,
 J. A. Parkhill,  R. Peverati,  V. A. Rassolov,  Haisheng Ren,  Yihan Shao,
 L. V. Slipchenko,  R. P. Steele,  J. E. Subotnik,  A. J. W. Thom,
 A. Tkatchenko,  D. G. Truhlar,  T. Van Voorhis,  Fan Wang,
 T. A. Wesolowski,  K. B. Whaley,  H. L. Woodcock III,  P. M. Zimmerman,
 S. Faraji,  P. M. W. Gill,  M. Head-Gordon,  J. M. Herbert,  A. I. Krylov

 Contributors to earlier versions of Q-Chem not listed above:
 R. D. Adamson,  B. Austin,  R. Baer,  J. Baker,  G. J. O. Beran,
 K. Brandhorst,  S. T. Brown,  E. F. C. Byrd,  Arup K. Chakraborty,
 G. K. L. Chan,  Chun-Min Chang,  Yunqing Chen,  C.-L. Cheng,
 Siu Hung Chien,  D. M. Chipman,  D. L. Crittenden,  H. Dachsel,
 R. J. Doerksen,  A. D. Dutoi,  R. G. Edgar,  J. Fosso-Tande,
 L. Fusti-Molnar,  D. Ghosh,  A. Ghysels,  A. Golubeva-Zadorozhnaya,
 J. Gonthier,  M. S. Gordon,  S. R. Gwaltney,  G. Hawkins,  J. E. Herr,
 A. Heyden,  S. Hirata,  E. G. Hohenstein,  G. Kedziora,  F. J. Keil,
 C. Kelley,  Jihan Kim,  R. A. King,  R. Z. Khaliullin,  P. P. Korambath,
 W. Kurlancheek,  A. Laurent,  A. M. Lee,  M. S. Lee,  S. V. Levchenko,
 Ching Yeh Lin,  D. Liotard,  E. Livshits,  R. C. Lochan,  I. Lotan,
 L. A. Martinez-Martinez,  P. E. Maslen,  N. Nair,  D. P. O'Neill,
 D. Neuhauser,  E. Neuscamman,  C. M. Oana,  R. Olivares-Amaya,  R. Olson,
 T. M. Perrine,  B. Peters,  P. A. Pieniazek,  A. Prociuk,  Y. M. Rhee,
 J. Ritchie,  M. A. Rohrdanz,  E. Rosta,  N. J. Russ,  H. F. Schaefer III,
 M. W. Schmidt,  N. E. Schultz,  S. Sharma,  N. Shenvi,  C. D. Sherrill,
 A. C. Simmonett,  A. Sodt,  T. Stein,  D. Stuck,  K. S. Thanthiriwatte,
 V. Vanovschi,  L. Vogt,  Tao Wang,  A. Warshel,  M. A. Watson,
 C. F. Williams,  Q. Wu,  X. Xu,  Jun Yang,  W. Zhang,  Yan Zhao

   Please cite Q-Chem as follows:
  "Software for the frontiers of quantum chemistry:
   An overview of developments in the Q-Chem 5 package"
   J. Chem. Phys. 155, 084801 (2021)
   https://doi.org/10.1063/5.0055522 (open access)

 Q-Chem 6.0.1 for Intel X86 EM64T Linux

 Parts of Q-Chem use Armadillo 9.900.5 (Nocturnal Misbehaviour).
 http://arma.sourceforge.net/

 Q-Chem begins on Mon Nov 28 19:54:00 2022

 Host: node8.as.kent.edu
0

     Scratch files written to /home/eholder/active_projects/fe@c60/c60/reproduce-attempt/anion-opt/opt//
 Processing $rem in /data/dunietz/eholder/qchem/config/preferences:
 Processing $rem in /home/eholder/.qchemrc:

 Name = B3LYP-D3

 Q-Chem fatal error occurred in module libdft/dftcodes.C, line 1000:

 Unrecognized exchange functional in XCode

 Please submit a crash report at q-chem.com/reporter
