 Q-Chem 6.0 (devel), Q-Chem, Inc., Pleasanton, CA (2022)
 Q-Chem 6.0.1 for Intel X86 EM64T Linux

User input:
--------------------------------------------------------------
$molecule
read opt.txt
$end

$rem
jobtype = opt
exchange = wB97XD
correlation = none
basis = 6-31G*
iqmol_fchk = true
scf_convergence = 8
max_scf_cycles = 5000
mem_static = 6000
mem_total = 56000
$end

--------------------------------------------------------------

   99   -2285.1402161984      9.06e-09  Convergence criterion met
 Total energy in the final basis set =    -2285.1402161984
   17   -2285.1465862849      9.71e-09  Convergence criterion met
 Total energy in the final basis set =    -2285.1465862849
   12   -2285.1469991029      9.75e-09  Convergence criterion met
 Total energy in the final basis set =    -2285.1469991029
   16   -2285.1471195392      9.41e-09  Convergence criterion met
 Total energy in the final basis set =    -2285.1471195392
   14   -2285.1471436081      7.64e-09  Convergence criterion met
 Total energy in the final basis set =    -2285.1471436081
   21   -2285.1471917252      9.13e-09  Convergence criterion met
 Total energy in the final basis set =    -2285.1471917252
  100   -2281.3682399937      6.47e-09  Convergence criterion met
 Total energy in the final basis set =    -2281.3682399937
   53   -2283.3501323008      9.48e-09  Convergence criterion met
   24   -2285.0728929475      7.11e-09  Convergence criterion met
 Total energy in the final basis set =    -2285.0728929475
   21   -2285.0764065194      7.94e-09  Convergence criterion met
 Total energy in the final basis set =    -2285.0764065194
   19   -2285.0766647771      6.91e-09  Convergence criterion met
 Total energy in the final basis set =    -2285.0766647771
   17   -2285.0767151658      7.00e-09  Convergence criterion met
 Total energy in the final basis set =    -2285.0767151658
   17   -2285.0767355329      4.50e-09  Convergence criterion met
 Total energy in the final basis set =    -2285.0767355329
   13   -2285.0767401360      7.03e-09  Convergence criterion met
 Total energy in the final basis set =    -2285.0767401360
   11   -2285.0767409432      7.12e-09  Convergence criterion met
 Total energy in the final basis set =    -2285.0767409432

             Orbital Energies (a.u.) and Symmetries
 --------------------------------------------------------------
 Warning : Irrep of orbital(   1) could not be determined
 Warning : Irrep of orbital(   2) could not be determined
 Warning : Irrep of orbital(  17) could not be determined
 Warning : Irrep of orbital(  18) could not be determined
 Warning : Irrep of orbital(  19) could not be determined
 Warning : Irrep of orbital(  20) could not be determined
 Warning : Irrep of orbital(  23) could not be determined
 Warning : Irrep of orbital(  24) could not be determined
 Warning : Irrep of orbital(  25) could not be determined
 Warning : Irrep of orbital(  26) could not be determined
 Warning : Irrep of orbital(  27) could not be determined
 Warning : Irrep of orbital(  28) could not be determined
 Warning : Irrep of orbital(  29) could not be determined
 Warning : Irrep of orbital(  30) could not be determined
 Warning : Irrep of orbital(  31) could not be determined
 Warning : Irrep of orbital(  32) could not be determined
 Warning : Irrep of orbital(  33) could not be determined
 Warning : Irrep of orbital(  34) could not be determined
 Warning : Irrep of orbital(  35) could not be determined
 Warning : Irrep of orbital(  36) could not be determined
 Warning : Irrep of orbital(  37) could not be determined
 Warning : Irrep of orbital(  38) could not be determined
 Warning : Irrep of orbital(  39) could not be determined
 Warning : Irrep of orbital(  40) could not be determined
 Warning : Irrep of orbital(  41) could not be determined
 Warning : Irrep of orbital(  42) could not be determined
 Warning : Irrep of orbital(  43) could not be determined
 Warning : Irrep of orbital(  44) could not be determined
 Warning : Irrep of orbital(  45) could not be determined
 Warning : Irrep of orbital(  46) could not be determined
 Warning : Irrep of orbital(  47) could not be determined
 Warning : Irrep of orbital(  48) could not be determined
 Warning : Irrep of orbital(  49) could not be determined
 Warning : Irrep of orbital(  50) could not be determined
 Warning : Irrep of orbital(  51) could not be determined
 Warning : Irrep of orbital(  52) could not be determined
 Warning : Irrep of orbital(  53) could not be determined
 Warning : Irrep of orbital(  54) could not be determined
 Warning : Irrep of orbital(  55) could not be determined
 Warning : Irrep of orbital(  56) could not be determined
 Warning : Irrep of orbital(  57) could not be determined
 Warning : Irrep of orbital(  58) could not be determined
 Warning : Irrep of orbital(  59) could not be determined
 Warning : Irrep of orbital(  60) could not be determined

 Alpha MOs, Unrestricted
 -- Occupied --
-10.478 -10.478 -10.478 -10.478 -10.478 -10.478 -10.478 -10.478
  0 xxx   0 xxx   1 Au    1 Ag    2 Ag    2 Au    3 Au    3 Ag
-10.478 -10.477 -10.477 -10.477 -10.477 -10.477 -10.477 -10.477
  4 Ag    4 Au    5 Au    5 Ag    6 Ag    6 Au    7 Au    7 Ag
-10.477 -10.477 -10.477 -10.477 -10.469 -10.469 -10.469 -10.469
  0 xxx   0 xxx   0 xxx   0 xxx   8 Au    8 Ag    0 xxx   0 xxx
-10.469 -10.469 -10.469 -10.469 -10.469 -10.469 -10.468 -10.468
  0 xxx   0 xxx   0 xxx   0 xxx   0 xxx   0 xxx   0 xxx   0 xxx
-10.468 -10.468 -10.468 -10.468 -10.468 -10.468 -10.468 -10.468
  0 xxx   0 xxx   0 xxx   0 xxx   0 xxx   0 xxx   0 xxx   0 xxx
-10.464 -10.464 -10.464 -10.464 -10.464 -10.464 -10.463 -10.463
  0 xxx   0 xxx   0 xxx   0 xxx   0 xxx   0 xxx   0 xxx   0 xxx
-10.463 -10.463 -10.461 -10.461 -10.461 -10.461 -10.461 -10.461
  0 xxx   0 xxx   0 xxx   0 xxx   0 xxx   0 xxx   0 xxx   0 xxx
-10.461 -10.461 -10.461 -10.461  -1.203  -1.184  -1.184  -1.179
  0 xxx   0 xxx   0 xxx   0 xxx   9 Ag    9 Au   10 Au   11 Au
 -1.145  -1.145  -1.143  -1.143  -1.141  -1.105  -1.105  -1.101
 10 Ag   11 Ag   12 Ag   13 Ag   14 Ag   12 Au   13 Au   14 Au
 -1.069  -1.069  -1.067  -1.067  -1.019  -1.019  -1.019  -1.015
 15 Au   16 Au   17 Au   18 Au   15 Ag   16 Ag   17 Ag   18 Ag
 -1.015  -1.002  -1.002  -0.994  -0.994  -0.942  -0.942  -0.942
 19 Ag   20 Ag   21 Ag   22 Ag   23 Ag   19 Au   20 Au   21 Au
 -0.942  -0.938  -0.928  -0.923  -0.923  -0.884  -0.880  -0.880
 22 Au   23 Au   24 Au   25 Au   26 Au   27 Au   28 Au   29 Au
 -0.847  -0.847  -0.846  -0.841  -0.841  -0.839  -0.839  -0.831
 24 Ag   25 Ag   26 Ag   27 Ag   28 Ag   29 Ag   30 Ag   31 Ag
 -0.815  -0.772  -0.772  -0.771  -0.771  -0.751  -0.751  -0.742
 32 Ag   33 Ag   34 Ag   35 Ag   36 Ag   30 Au   31 Au   32 Au
 -0.742  -0.736  -0.733  -0.727  -0.727  -0.705  -0.700  -0.698
 33 Au   34 Au   35 Au   36 Au   37 Au   38 Au   37 Ag   39 Au
 -0.698  -0.678  -0.678  -0.677  -0.677  -0.675  -0.675  -0.673
 40 Au   41 Au   42 Au   43 Au   44 Au   45 Au   46 Au   47 Au
 -0.657  -0.653  -0.653  -0.653  -0.653  -0.641  -0.641  -0.634
 38 Ag   39 Ag   40 Ag   41 Ag   42 Ag   43 Ag   44 Ag   45 Ag
 -0.634  -0.632  -0.632  -0.628  -0.628  -0.628  -0.628  -0.627
 46 Ag   47 Ag   48 Ag   49 Ag   50 Ag   51 Ag   52 Ag   53 Ag
 -0.622  -0.610  -0.610  -0.603  -0.603  -0.580  -0.568  -0.568
 54 Ag   48 Au   49 Au   50 Au   51 Au   55 Ag   52 Au   53 Au
 -0.567  -0.559  -0.559  -0.559  -0.559  -0.557  -0.557  -0.549
 54 Au   56 Ag   57 Ag   58 Ag   59 Ag   55 Au   56 Au   57 Au
 -0.549  -0.549  -0.549  -0.543  -0.539  -0.539  -0.477  -0.477
 58 Au   59 Au   60 Au   61 Au   62 Au   63 Au   60 Ag   61 Ag
 -0.475  -0.470  -0.470  -0.458  -0.458  -0.440  -0.440  -0.415
 62 Ag   63 Ag   64 Ag   65 Ag   66 Ag   67 Ag   68 Ag   64 Au
 -0.415  -0.409  -0.409  -0.333
 65 Au   66 Au   67 Au   68 Au

 Beta MOs, Unrestricted
 -- Occupied --
-10.477 -10.477 -10.477 -10.477 -10.477 -10.477 -10.477 -10.477
  0 xxx   0 xxx   1 Au    1 Ag    2 Ag    2 Au    3 Au    3 Ag
-10.477 -10.477 -10.477 -10.477 -10.477 -10.476 -10.476 -10.476
  4 Ag    4 Au    5 Au    5 Ag    6 Ag    6 Au    7 Au    7 Ag
-10.476 -10.476 -10.476 -10.476 -10.469 -10.469 -10.469 -10.469
  8 Ag    8 Au    0 xxx   0 xxx   9 Au    9 Ag    0 xxx   0 xxx
-10.469 -10.469 -10.469 -10.469 -10.469 -10.469 -10.468 -10.468
  0 xxx   0 xxx   0 xxx   0 xxx   0 xxx   0 xxx  10 Au   10 Ag
-10.468 -10.468 -10.468 -10.468 -10.468 -10.468 -10.468 -10.468
  0 xxx   0 xxx   0 xxx   0 xxx   0 xxx   0 xxx   0 xxx   0 xxx
-10.464 -10.464 -10.464 -10.464 -10.464 -10.464 -10.463 -10.463
  0 xxx   0 xxx   0 xxx   0 xxx   0 xxx   0 xxx   0 xxx   0 xxx
-10.463 -10.463 -10.461 -10.461 -10.461 -10.461 -10.461 -10.461
  0 xxx   0 xxx   0 xxx   0 xxx   0 xxx   0 xxx   0 xxx   0 xxx
-10.461 -10.461 -10.461 -10.461  -1.202  -1.183  -1.183  -1.179
  0 xxx   0 xxx   0 xxx   0 xxx  11 Ag   11 Au   12 Au   13 Au
 -1.144  -1.144  -1.143  -1.143  -1.140  -1.103  -1.103  -1.101
 12 Ag   13 Ag   14 Ag   15 Ag   16 Ag   14 Au   15 Au   16 Au
 -1.068  -1.068  -1.067  -1.067  -1.018  -1.017  -1.017  -1.015
 17 Au   18 Au   19 Au   20 Au   17 Ag   18 Ag   19 Ag   20 Ag
 -1.015  -1.000  -1.000  -0.994  -0.994  -0.942  -0.942  -0.940
 21 Ag   22 Ag   23 Ag   24 Ag   25 Ag   21 Au   22 Au   23 Au
 -0.940  -0.935  -0.927  -0.923  -0.923  -0.883  -0.880  -0.880
 24 Au   25 Au   26 Au   27 Au   28 Au   29 Au   30 Au   31 Au
 -0.845  -0.845  -0.845  -0.840  -0.840  -0.838  -0.838  -0.830
 26 Ag   27 Ag   28 Ag   29 Ag   30 Ag   31 Ag   32 Ag   33 Ag
 -0.815  -0.771  -0.771  -0.771  -0.771  -0.749  -0.749  -0.741
 34 Ag   35 Ag   36 Ag   37 Ag   38 Ag   32 Au   33 Au   34 Au
 -0.741  -0.736  -0.732  -0.726  -0.726  -0.704  -0.698  -0.697
 35 Au   36 Au   37 Au   38 Au   39 Au   40 Au   39 Ag   41 Au
 -0.697  -0.676  -0.676  -0.674  -0.674  -0.674  -0.674  -0.671
 42 Au   43 Au   44 Au   45 Au   46 Au   47 Au   48 Au   49 Au
 -0.657  -0.653  -0.653  -0.652  -0.652  -0.640  -0.640  -0.634
 40 Ag   41 Ag   42 Ag   43 Ag   44 Ag   45 Ag   46 Ag   47 Ag
 -0.634  -0.631  -0.631  -0.626  -0.626  -0.624  -0.624  -0.624
 48 Ag   49 Ag   50 Ag   51 Ag   52 Ag   53 Ag   54 Ag   55 Ag
 -0.622  -0.610  -0.609  -0.603  -0.602  -0.579  -0.564  -0.563
 56 Ag   50 Au   51 Au   52 Au   53 Au   57 Ag   54 Au   55 Au
 -0.563  -0.559  -0.559  -0.559  -0.559  -0.556  -0.556  -0.548
 56 Au   58 Ag   59 Ag   60 Ag   61 Ag   57 Au   58 Au   59 Au
 -0.548  -0.544  -0.544  -0.543  -0.537  -0.537  -0.472  -0.472
 60 Au   61 Au   62 Au   63 Au   64 Au   65 Au   62 Ag   63 Ag
 -0.465  -0.463  -0.463  -0.456  -0.456  -0.432  -0.432  -0.409
 64 Ag   65 Ag   66 Ag   67 Ag   68 Ag   69 Ag   70 Ag   66 Au
 -0.409  -0.408  -0.408
 67 Au   68 Au   69 Au

          Ground-State Mulliken Net Atomic Charges

     Atom                 Charge (a.u.)    Spin (a.u.)
  --------------------------------------------------------
      1 C                     0.017407      -0.006140
      2 C                     0.016600       0.031634
      3 C                     0.016601       0.031635
      4 C                     0.017407      -0.006138
      5 C                     0.020837       0.046492
      6 C                     0.020701       0.046304
      7 C                     0.020707       0.046925
      8 C                     0.020842       0.047075
      9 C                     0.012352      -0.009522
     10 C                     0.012056      -0.009195
     11 C                     0.012052      -0.009659
     12 C                     0.012356      -0.009059
     13 C                     0.017598      -0.006284
     14 C                     0.016899      -0.006223
     15 C                     0.011951      -0.009258
     16 C                     0.011834      -0.009442
     17 C                     0.011839      -0.009082
     18 C                     0.011946      -0.009607
     19 C                     0.016900      -0.006334
     20 C                     0.017597      -0.006172
     21 C                     0.012498      -0.009485
     22 C                     0.021010       0.046533
     23 C                     0.020883       0.046740
     24 C                     0.012523      -0.009498
     25 C                     0.012521      -0.009329
     26 C                     0.020879       0.046620
     27 C                     0.021007       0.046456
     28 C                     0.012496      -0.009299
     29 C                     0.016311       0.031708
     30 C                     0.020995       0.046968
     31 C                     0.016597       0.031678
     32 C                     0.020800       0.046249
     33 C                     0.020811       0.046992
     34 C                     0.016592       0.031681
     35 C                     0.020983       0.046191
     36 C                     0.016316       0.031705
     37 C                     0.016170       0.031922
     38 C                     0.016234       0.031813
     39 C                     0.012418      -0.009513
     40 C                     0.012888      -0.009253
     41 C                     0.012887      -0.009654
     42 C                     0.012419      -0.009122
     43 C                     0.016226       0.031818
     44 C                     0.016178       0.031917
     45 C                     0.011966      -0.009262
     46 C                     0.020799       0.046035
     47 C                     0.021061       0.045950
     48 C                     0.011990      -0.009254
     49 C                     0.011986      -0.009356
     50 C                     0.021074       0.047029
     51 C                     0.020812       0.047098
     52 C                     0.011962      -0.009381
     53 C                     0.017058      -0.006162
     54 C                     0.020781       0.045809
     55 C                     0.017712      -0.006181
     56 C                     0.021064       0.047217
     57 C                     0.021049       0.046079
     58 C                     0.017712      -0.006251
     59 C                     0.020796       0.046937
     60 C                     0.017057      -0.006095
  --------------------------------------------------------
  Sum of atomic charges =     1.000000

                    Cartesian Multipole Moments
 -----------------------------------------------------------------
    Charge (ESU x 10^10)
                 4.8032
    Dipole Moment (Debye)
         X      -0.0000      Y      -0.0001      Z       0.0005
       Tot       0.0006
    Quadrupole Moments (Debye-Ang)
        XX    -297.2452     XY       4.0450     YY    -294.4684
        XZ       0.4938     YZ      -0.3504     ZZ    -291.6338

 Final energy is -2285.076740943234
	**  OPTIMIZATION CONVERGED  **

             Standard Nuclear Orientation (Angstroms)
    I     Atom           X                Y                Z
 ----------------------------------------------------------------
    1      C       3.4621172317    -0.9657741686    -0.1165696754
    2      C       3.5471734952     0.4105715677     0.0495788082
    3      C      -3.5471739921    -0.4105701246    -0.0495834018
    4      C      -3.4621171600     0.9657794016     0.1165360226
    5      C       0.7122143489     0.3637378173    -3.4022682743
    6      C      -0.7123124674     0.4584077942    -3.3911676375
    7      C       0.7123635735    -0.4583981590     3.3911742726
    8      C      -0.7122666849    -0.3637498801     3.4022724064
    9      C      -0.1985330706    -3.3514649548    -1.0978114946
   10      C      -0.1987860939    -3.5171529301     0.2671706635
   11      C       0.1988066149     3.5171555999    -0.2671496476
   12      C       0.1985149150     3.3514564674     1.0978314797
   13      C       2.9657319324    -1.5112240900    -1.3629238841
   14      C       2.9657877489    -1.7928500339     0.9638906613
   15      C       3.1266383529     1.2940806685    -1.0145528960
   16      C       3.1268636247     1.0152728162     1.2935682183
   17      C      -3.1268518214    -1.0153005674    -1.2935545257
   18      C      -3.1266512285    -1.2940551386     1.0145724034
   19      C      -2.9657515635     1.7928252958    -0.9639416753
   20      C      -2.9657678529     1.5112615237     1.3628804758
   21      C       1.3628687913    -0.9192637579    -3.1256707122
   22      C       1.4877049628     1.3826237005    -2.8437857358
   23      C      -1.4879602121    -0.6642176484    -3.0914117086
   24      C      -1.3630846445     1.6383627009    -2.8169369600
   25      C       1.3631380755    -1.6383895857     2.8169053837
   26      C       1.4879553941     0.6641555642     3.0914437874
   27      C      -1.4877011060    -1.3825711730     2.8438313673
   28      C      -1.3629227199     0.9192967857     3.1256466948
   29      C       1.0046918386    -2.9285164415    -1.7785676286
   30      C      -1.3400381430    -2.7097754311    -1.7544673449
   31      C       1.0041834470    -3.2675267165     1.0293474882
   32      C      -1.3406102750    -3.0504499149     1.0574112448
   33      C       1.3406327630     3.0504501299    -1.0573501499
   34      C      -1.0041487160     3.2675129571    -1.0293594451
   35      C       1.3400166612     2.7097602161     1.7545256438
   36      C      -1.0047248408     2.9285318505     1.7785593062
   37      C       2.5754098422    -0.6549760101    -2.3845139570
   38      C       2.5755561657    -1.2044751392     2.1599299534
   39      C       2.6539335772     0.7762082652    -2.1974851477
   40      C       2.6541560649     0.2301431885     2.3187704942
   41      C      -2.6541366659    -0.2301919550    -2.3187833651
   42      C      -2.6539543011    -0.7761571676     2.1974838825
   43      C      -2.5755114411     1.2044397821    -2.1599535596
   44      C      -2.5754550369     0.6550164204     2.3844996631
   45      C       0.5995546750    -2.0240962956    -2.8312267750
   46      C       0.8609566134     2.5245806054    -2.2597175707
   47      C      -0.8605954189    -1.9122161635    -2.7964509884
   48      C      -0.5993967852     2.6412288351    -2.2675439649
   49      C       0.5994523020    -2.6412419273     2.2675281538
   50      C       0.8605746161     1.9122328457     2.7964578755
   51      C      -0.8609362578    -2.5246001129     2.2597184909
   52      C      -0.5996095222     2.0241119350     2.8312155800
   53      C       2.1612690136    -2.6748497076    -1.0525467652
   54      C      -2.4606427020    -2.2818232838    -0.9797552203
   55      C       2.1607231855    -2.8484012518     0.3851923173
   56      C      -2.4609766611    -2.4493602679     0.4072513798
   57      C       2.4609742092     2.4493685779    -0.4072129288
   58      C      -2.1606942872     2.8483950145    -0.3852327436
   59      C       2.4606436478     2.2818060706     0.9797922731
   60      C      -2.1612960149     2.6748656158     1.0525093970
 ----------------------------------------------------------------

 Total job time:  136531.94s(wall), 1051602.33s(cpu)
        *  Thank you very much for using Q-Chem.  Have a nice day.  *

User input: 2 of 2

                  Welcome to Q-Chem
     A Quantum Leap Into The Future Of Chemistry

 Q-Chem 6.0 (devel), Q-Chem, Inc., Pleasanton, CA (2022)

 E. Epifanovsky,  A. T. B. Gilbert,  Xintian Feng,  Joonho Lee,  Yuezhi Mao,
 N. Mardirossian,  P. Pokhilko,  A. White,  M. Wormit,  M. P. Coons,
 A. L. Dempwolff,  Zhengting Gan,  D. Hait,  P. R. Horn,  L. D. Jacobson,
 I. Kaliman,  J. Kussmann,  A. W. Lange,  Ka Un Lao,  D. S. Levine,  Jie Liu,
 S. C. McKenzie,  A. F. Morrison,  K. Nanda,  F. Plasser,  D. R. Rehn,
 M. L. Vidal,  Zhi-Qiang You,  Ying Zhu,  B. Alam,  B. Albrecht,
 A. Aldossary,  E. Alguire,  J. H. Andersen,  V. Athavale,  D. Barton,
 K. Begam,  A. Behn,  N. Bellonzi,  Y. A. Bernard,  E. J. Berquist,
 H. Burton,  A. Carreras,  K. Carter-Fenk,  Romit Chakraborty,
 Chandrima Chakravarty,  Junhan Chen,  A. D. Chien,  K. D. Closser,
 V. Cofer-Shabica,  L. Cunha,  S. Dasgupta,  Jia Deng,  M. de Wergifosse,
 M. Diedenhofen,  Hainam Do,  S. Ehlert,  Po-Tung Fang,  S. Fatehi,
 Qingguo Feng,  T. Friedhoff,  B. Ganoe,  J. Gayvert,  Qinghui Ge,
 G. Gidofalvi,  M. Goldey,  J. Gomes,  C. Gonzalez-Espinoza,  S. Gulania,
 A. Gunina,  J. A. Gyamfi,  M. W. D. Hanson-Heine,  P. H. P. Harbach,
 A. W. Hauser,  M. F. Herbst,  M. Hernandez Vera,  M. Hodecker,
 Z. C. Holden,  S. Houck,  Xunkun Huang,  Kerwin Hui,  B. C. Huynh,
 K. Ikeda,  M. Ivanov,  Hyunjun Ji,  Zuxin Jin,  Hanjie Jiang,  B. Kaduk,
 S. Kaehler,  R. Kang,  K. Khistyaev,  Jaehoon Kim,  Yongbin Kim,
 P. Klunzinger,  Z. Koczor-Benda,  Joong Hoon Koh,  D. Kosenkov,
 Saikiran Kotaru,  L. Koulias,  T. Kowalczyk,  C. M. Krauter,  K. Kue,
 A. Kunitsa,  T. Kus,  A. Landau,  K. V. Lawler,  D. Lefrancois,  S. Lehtola,
 Rain Li,  Shaozhi Li,  Yi-Pei Li,  Jiashu Liang,  M. Liebenthal,
 Hung-Hsuan Lin,  You-Sheng Lin,  Fenglai Liu,  Kuan-Yu Liu,
 M. Loipersberger,  A. Luenser,  C. Malbon,  A. Manjanath,  P. Manohar,
 E. Mansoor,  S. F. Manzer,  Shan-Ping Mao,  A. V. Marenich,  T. Markovich,
 S. Mason,  F. Matz,  S. A. Maurer,  P. F. McLaughlin,  M. F. S. J. Menger,
 J.-M. Mewes,  S. A. Mewes,  P. Morgante,  Mohammad Mostafanejad,
 J. W. Mullinax,  K. J. Oosterbaan,  G. Paran,  V. Parravicini,
 Alexander C. Paul,  Suranjan K. Paul,  F. Pavosevic,  Zheng Pei,  S. Prager,
 E. I. Proynov,  E. Ramos,  B. Rana,  A. E. Rask,  A. Rettig,  R. M. Richard,
 F. Rob,  E. Rossomme,  T. Scheele,  M. Scheurer,  M. Schneider,
 P. E. Schneider,  N. Sergueev,  S. M. Sharada,  Hengyuan Shen,
 W. Skomorowski,  D. W. Small,  C. J. Stein,  Yingli Su,  Yu-Chuan Su,
 E. J. Sundstrom,  Zhen Tao,  J. Thirman,  Hung-Yi Tsai,  T. Tsuchimochi,
 N. M. Tubman,  C. Utku,  S. P. Veccham,  O. Vydrov,  J. Wenzel,
 Jonathan Wong,  J. Witte,  A. Yamada,  Chou-Hsun Yang,  Kun Yao,
 S. Yeganeh,  S. R. Yost,  A. Zech,  F. Zeller,  Igor Ying Zhang,
 Xing Zhang,  Yu Zhang,  D. Zuev,  A. Aspuru-Guzik,  A. T. Bell,
 N. A. Besley,  K. B. Bravaya,  B. R. Brooks,  D. Casanova,  Jeng-Da Chai,
 Hsing-Ta Chen,  S. Coriani,  C. J. Cramer,  A. E. DePrince, III,
 R. A. DiStasio Jr.,  A. Dreuw,  B. D. Dunietz,  T. R. Furlani,
 W. A. Goddard III,  S. Grimme,  S. Hammes-Schiffer,  T. Head-Gordon,
 W. J. Hehre,  Chao-Ping Hsu,  T.-C. Jagau,  Yousung Jung,  A. Klamt,
 Jing Kong,  D. S. Lambrecht,  Xiangyuan Li,  WanZhen Liang,  N. J. Mayhall,
 C. W. McCurdy,  J. B. Neaton,  T. Neudecker,  C. Ochsenfeld,
 J. A. Parkhill,  R. Peverati,  V. A. Rassolov,  Haisheng Ren,  Yihan Shao,
 L. V. Slipchenko,  R. P. Steele,  J. E. Subotnik,  A. J. W. Thom,
 A. Tkatchenko,  D. G. Truhlar,  T. Van Voorhis,  Fan Wang,
 T. A. Wesolowski,  K. B. Whaley,  H. L. Woodcock III,  P. M. Zimmerman,
 S. Faraji,  P. M. W. Gill,  M. Head-Gordon,  J. M. Herbert,  A. I. Krylov

 Contributors to earlier versions of Q-Chem not listed above:
 R. D. Adamson,  B. Austin,  R. Baer,  J. Baker,  G. J. O. Beran,
 K. Brandhorst,  S. T. Brown,  E. F. C. Byrd,  Arup K. Chakraborty,
 G. K. L. Chan,  Chun-Min Chang,  Yunqing Chen,  C.-L. Cheng,
 Siu Hung Chien,  D. M. Chipman,  D. L. Crittenden,  H. Dachsel,
 R. J. Doerksen,  A. D. Dutoi,  R. G. Edgar,  J. Fosso-Tande,
 L. Fusti-Molnar,  D. Ghosh,  A. Ghysels,  A. Golubeva-Zadorozhnaya,
 J. Gonthier,  M. S. Gordon,  S. R. Gwaltney,  G. Hawkins,  J. E. Herr,
 A. Heyden,  S. Hirata,  E. G. Hohenstein,  G. Kedziora,  F. J. Keil,
 C. Kelley,  Jihan Kim,  R. A. King,  R. Z. Khaliullin,  P. P. Korambath,
 W. Kurlancheek,  A. Laurent,  A. M. Lee,  M. S. Lee,  S. V. Levchenko,
 Ching Yeh Lin,  D. Liotard,  E. Livshits,  R. C. Lochan,  I. Lotan,
 L. A. Martinez-Martinez,  P. E. Maslen,  N. Nair,  D. P. O'Neill,
 D. Neuhauser,  E. Neuscamman,  C. M. Oana,  R. Olivares-Amaya,  R. Olson,
 T. M. Perrine,  B. Peters,  P. A. Pieniazek,  A. Prociuk,  Y. M. Rhee,
 J. Ritchie,  M. A. Rohrdanz,  E. Rosta,  N. J. Russ,  H. F. Schaefer III,
 M. W. Schmidt,  N. E. Schultz,  S. Sharma,  N. Shenvi,  C. D. Sherrill,
 A. C. Simmonett,  A. Sodt,  T. Stein,  D. Stuck,  K. S. Thanthiriwatte,
 V. Vanovschi,  L. Vogt,  Tao Wang,  A. Warshel,  M. A. Watson,
 C. F. Williams,  Q. Wu,  X. Xu,  Jun Yang,  W. Zhang,  Yan Zhao

   Please cite Q-Chem as follows:
  "Software for the frontiers of quantum chemistry:
   An overview of developments in the Q-Chem 5 package"
   J. Chem. Phys. 155, 084801 (2021)
   https://doi.org/10.1063/5.0055522 (open access)

 Q-Chem 6.0.1 for Intel X86 EM64T Linux

 Parts of Q-Chem use Armadillo 9.900.5 (Nocturnal Misbehaviour).
 http://arma.sourceforge.net/

 Q-Chem begins on Wed Nov 30 02:38:53 2022

 Host: node1.as.kent.edu
0

     Scratch files written to /home/eholder/active_projects/fe@c60/c60/reproduce-attempt/cation-opt/opt//
 Processing $rem in /data/dunietz/eholder/qchem/config/preferences:
 Processing $rem in /home/eholder/.qchemrc:

 Name = B3LYP-D3

 Q-Chem fatal error occurred in module libdft/dftcodes.C, line 1000:

 Unrecognized exchange functional in XCode

 Please submit a crash report at q-chem.com/reporter
