 Q-Chem 6.0 (devel), Q-Chem, Inc., Pleasanton, CA (2022)
 Q-Chem 6.0.1 for Intel X86 EM64T Linux

User input:
--------------------------------------------------------------
$molecule
read opt.txt
$end

$XC_FUNCTIONAL
X HF 0.2
X wPBE 0.8
C PBE  1.0
$end

$rem
jobtype               freq
exchange              general
correlation           none
basis                 6-31G
omega                 235
lrc_dft               true
SCF_FINAL_PRINT       1
iqmol_fchk            true
solvent_method        pcm
mem_static            8000
mem_total             80000
$end

$pcm
theory                pcm
method                swig
solver                inversion
HeavyPoints           194
HPoints               194
radii                 bondi
vdwscale              1.2
$end

$solvent
Dielectric            4.0
$end
--------------------------------------------------------------

             Standard Nuclear Orientation (Angstroms)
    I     Atom           X                Y                Z
 ----------------------------------------------------------------
    1      C       3.4825411842     0.6980950573    -0.0000000094
    2      C       3.4825411861    -0.6980950595     0.0000000029
    3      C      -3.4825411865     0.6980950586    -0.0000000062
    4      C      -3.4825411862    -0.6980950571     0.0000000060
    5      C       0.6980951431    -0.0000000050     3.4825414227
    6      C      -0.6980951336    -0.0000000027     3.4825414270
    7      C       0.6980951357     0.0000000000    -3.4825414275
    8      C      -0.6980951439     0.0000000032    -3.4825414234
    9      C      -0.0000000039     3.4825413049     0.6980950807
   10      C       0.0000000000     3.4825413081    -0.6980950734
   11      C       0.0000000000    -3.4825413085     0.6980950720
   12      C       0.0000000036    -3.4825413036    -0.6980950752
   13      C       3.0327448388     1.4249343470     1.1762245639
   14      C       3.0327448460     1.4249343444    -1.1762245737
   15      C       3.0327448425    -1.4249343513     1.1762245734
   16      C       3.0327448440    -1.4249343534    -1.1762245646
   17      C      -3.0327448438     1.4249343538     1.1762245630
   18      C      -3.0327448429     1.4249343479    -1.1762245737
   19      C      -3.0327448468    -1.4249343518     1.1762245706
   20      C      -3.0327448404    -1.4249343502    -1.1762245625
   21      C       1.4249344050     1.1762247364     3.0327448103
   22      C       1.4249344115    -1.1762247434     3.0327448165
   23      C      -1.4249344023     1.1762247354     3.0327448177
   24      C      -1.4249344069    -1.1762247433     3.0327448216
   25      C       1.4249344071     1.1762247418    -3.0327448226
   26      C       1.4249344071    -1.1762247337    -3.0327448171
   27      C      -1.4249344101     1.1762247404    -3.0327448181
   28      C      -1.4249344080    -1.1762247333    -3.0327448105
   29      C       1.1762246634     3.0327447548     1.4249342407
   30      C      -1.1762246746     3.0327447573     1.4249342364
   31      C       1.1762246710     3.0327447667    -1.4249342397
   32      C      -1.1762246710     3.0327447660    -1.4249342395
   33      C       1.1762246699    -3.0327447668     1.4249342415
   34      C      -1.1762246729    -3.0327447675     1.4249342391
   35      C       1.1762246740    -3.0327447558    -1.4249342332
   36      C      -1.1762246661    -3.0327447532    -1.4249342353
   37      C       2.6011868719     0.7270743339     2.3057166999
   38      C       2.6011868784     0.7270743378    -2.3057167139
   39      C       2.6011868738    -0.7270743389     2.3057167114
   40      C       2.6011868738    -0.7270743395    -2.3057167087
   41      C      -2.6011868756     0.7270743420     2.3057167025
   42      C      -2.6011868756     0.7270743373    -2.3057167101
   43      C      -2.6011868769    -0.7270743426     2.3057167131
   44      C      -2.6011868703    -0.7270743338    -2.3057167044
   45      C       0.7270743330     2.3057168753     2.6011867561
   46      C       0.7270743414    -2.3057168812     2.6011867671
   47      C      -0.7270743339     2.3057168779     2.6011867564
   48      C      -0.7270743382    -2.3057168849     2.6011867672
   49      C       0.7270743385     2.3057168848    -2.6011867667
   50      C       0.7270743394    -2.3057168709    -2.6011867565
   51      C      -0.7270743386     2.3057168813    -2.6011867666
   52      C      -0.7270743356    -2.3057168687    -2.6011867561
   53      C       2.3057167594     2.6011867163     0.7270742526
   54      C      -2.3057167662     2.6011867206     0.7270742468
   55      C       2.3057167638     2.6011867203    -0.7270742561
   56      C      -2.3057167668     2.6011867207    -0.7270742576
   57      C       2.3057167689    -2.6011867209     0.7270742579
   58      C      -2.3057167687    -2.6011867212     0.7270742550
   59      C       2.3057167670    -2.6011867207    -0.7270742440
   60      C      -2.3057167627    -2.6011867173    -0.7270742488
 ----------------------------------------------------------------

   11   -2283.4744944672      6.40e-09  Convergence criterion met
 Total energy in the final basis set =    -2283.4744944672

                    Orbital Energies (a.u.)
 --------------------------------------------------------------

 Alpha MOs
 -- Occupied --
-10.3295 -10.3295 -10.3295 -10.3295 -10.3294 -10.3294 -10.3294 -10.3294
-10.3294 -10.3293 -10.3293 -10.3293 -10.3293 -10.3293 -10.3293 -10.3293
-10.3293 -10.3293 -10.3293 -10.3293 -10.3293 -10.3293 -10.3292 -10.3292
-10.3292 -10.3292 -10.3292 -10.3292 -10.3292 -10.3292 -10.3289 -10.3289
-10.3289 -10.3289 -10.3289 -10.3289 -10.3288 -10.3288 -10.3288 -10.3288
-10.3288 -10.3288 -10.3288 -10.3288 -10.3288 -10.3288 -10.3288 -10.3288
-10.3288 -10.3287 -10.3287 -10.3287 -10.3287 -10.3286 -10.3286 -10.3286
-10.3286 -10.3286 -10.3286 -10.3286  -1.1051  -1.0848  -1.0848  -1.0848
 -1.0459  -1.0459  -1.0459  -1.0459  -1.0459  -1.0051  -1.0051  -1.0051
 -0.9712  -0.9712  -0.9712  -0.9712  -0.9191  -0.9191  -0.9191  -0.9191
 -0.9191  -0.9010  -0.9010  -0.9010  -0.9010  -0.8412  -0.8412  -0.8412
 -0.8412  -0.8412  -0.8285  -0.8285  -0.8285  -0.7845  -0.7845  -0.7845
 -0.7438  -0.7438  -0.7438  -0.7438  -0.7438  -0.7405  -0.7405  -0.7405
 -0.7167  -0.6724  -0.6724  -0.6724  -0.6723  -0.6444  -0.6444  -0.6444
 -0.6443  -0.6443  -0.6291  -0.6291  -0.6291  -0.6014  -0.6014  -0.6014
 -0.5981  -0.5746  -0.5746  -0.5746  -0.5746  -0.5733  -0.5733  -0.5733
 -0.5543  -0.5543  -0.5543  -0.5542  -0.5542  -0.5380  -0.5380  -0.5380
 -0.5380  -0.5268  -0.5268  -0.5268  -0.5244  -0.5244  -0.5244  -0.5244
 -0.5244  -0.5070  -0.5069  -0.5069  -0.5069  -0.4612  -0.4612  -0.4612
 -0.4595  -0.4595  -0.4595  -0.4594  -0.4594  -0.4472  -0.4472  -0.4471
 -0.4471  -0.4471  -0.4422  -0.4422  -0.4422  -0.4422  -0.3629  -0.3629
 -0.3629  -0.3629  -0.3561  -0.3561  -0.3561  -0.3561  -0.3561  -0.3020
 -0.3020  -0.3020  -0.3020  -0.3020

          Ground-State Mulliken Net Atomic Charges

     Atom                 Charge (a.u.)
  ----------------------------------------
      1 C                     0.000229
      2 C                     0.000229
      3 C                     0.000229
      4 C                     0.000229
      5 C                     0.000229
      6 C                     0.000229
      7 C                     0.000229
      8 C                     0.000229
      9 C                     0.000229
     10 C                     0.000229
     11 C                     0.000229
     12 C                     0.000229
     13 C                    -0.000089
     14 C                    -0.000089
     15 C                    -0.000089
     16 C                    -0.000089
     17 C                    -0.000089
     18 C                    -0.000089
     19 C                    -0.000089
     20 C                    -0.000089
     21 C                    -0.000089
     22 C                    -0.000089
     23 C                    -0.000089
     24 C                    -0.000089
     25 C                    -0.000089
     26 C                    -0.000089
     27 C                    -0.000089
     28 C                    -0.000089
     29 C                    -0.000089
     30 C                    -0.000089
     31 C                    -0.000089
     32 C                    -0.000089
     33 C                    -0.000089
     34 C                    -0.000089
     35 C                    -0.000089
     36 C                    -0.000089
     37 C                    -0.000025
     38 C                    -0.000025
     39 C                    -0.000025
     40 C                    -0.000025
     41 C                    -0.000025
     42 C                    -0.000025
     43 C                    -0.000025
     44 C                    -0.000025
     45 C                    -0.000025
     46 C                    -0.000025
     47 C                    -0.000025
     48 C                    -0.000025
     49 C                    -0.000025
     50 C                    -0.000025
     51 C                    -0.000025
     52 C                    -0.000025
     53 C                    -0.000025
     54 C                    -0.000025
     55 C                    -0.000025
     56 C                    -0.000025
     57 C                    -0.000025
     58 C                    -0.000025
     59 C                    -0.000025
     60 C                    -0.000025
  ----------------------------------------
  Sum of atomic charges =     0.000000

                    Cartesian Multipole Moments
 -----------------------------------------------------------------
    Charge (ESU x 10^10)
                 0.0000
    Dipole Moment (Debye)
         X       0.0000      Y      -0.0000      Z       0.0000
       Tot       0.0000
    Quadrupole Moments (Debye-Ang)
        XX    -334.8468     XY      -0.0000     YY    -334.8468
        XZ      -0.0000     YZ      -0.0000     ZZ    -334.8467

 Frequency:       273.22                 273.22                 274.03
 Force Cnst:      0.5278                 0.5278                 0.5309
 Red. Mass:      12.0000                12.0000                12.0000
 IR Intens:        0.000                  0.000                  0.000
 Frequency:       274.03                 274.04                 356.63
 Force Cnst:      0.5309                 0.5309                 0.8992
 Red. Mass:      12.0000                12.0000                12.0000
 IR Intens:        0.000                  0.000                  0.001
 Frequency:       356.63                 356.63                 367.34
 Force Cnst:      0.8992                 0.8992                 0.9540
 Red. Mass:      12.0000                12.0000                12.0000
 IR Intens:        0.001                  0.001                  0.000
 Frequency:       367.34                 367.34                 369.47
 Force Cnst:      0.9540                 0.9540                 0.9651
 Red. Mass:      12.0000                12.0000                12.0000
 IR Intens:        0.000                  0.000                  0.000
 Frequency:       420.75                 420.75                 420.75
 Force Cnst:      1.2516                 1.2516                 1.2517
 Red. Mass:      12.0000                12.0000                12.0000
 IR Intens:        0.000                  0.000                  0.000
 Frequency:       421.68                 421.68                 454.44
 Force Cnst:      1.2572                 1.2572                 1.4601
 Red. Mass:      12.0000                12.0000                12.0000
 IR Intens:        0.000                  0.000                  0.000
 Frequency:       454.44                 455.98                 455.98
 Force Cnst:      1.4601                 1.4700                 1.4700
 Red. Mass:      12.0000                12.0000                12.0000
 IR Intens:        0.000                  0.000                  0.000
 Frequency:       455.98                 504.05                 507.05
 Force Cnst:      1.4700                 1.7963                 1.8177
 Red. Mass:      12.0000                12.0000                12.0000
 IR Intens:        0.000                  0.000                  0.000
 Frequency:       507.05                 507.05                 507.83
 Force Cnst:      1.8177                 1.8178                 1.8233
 Red. Mass:      12.0000                12.0000                12.0000
 IR Intens:        0.000                  0.000                  0.000
 Frequency:       562.88                 562.88                 562.89
 Force Cnst:      2.2401                 2.2401                 2.2401
 Red. Mass:      12.0000                12.0000                12.0000
 IR Intens:        7.438                  7.402                  7.441
 Frequency:       563.73                 563.73                 564.60
 Force Cnst:      2.2468                 2.2469                 2.2538
 Red. Mass:      12.0000                12.0000                12.0000
 IR Intens:        0.000                  0.000                 66.894
 Frequency:       564.60                 564.60                 583.54
 Force Cnst:      2.2538                 2.2538                 2.4076
 Red. Mass:      12.0000                12.0000                12.0000
 IR Intens:       66.929                 66.890                  0.000
 Frequency:       583.55                 583.56                 592.91
 Force Cnst:      2.4076                 2.4077                 2.4854
 Red. Mass:      12.0000                12.0000                12.0000
 IR Intens:        0.000                  0.000                  0.000
 Frequency:       595.24                 595.24                 595.24
 Force Cnst:      2.5050                 2.5050                 2.5050
 Red. Mass:      12.0000                12.0000                12.0000
 IR Intens:        0.000                  0.000                  0.000
 Frequency:       597.60                 597.60                 597.60
 Force Cnst:      2.5250                 2.5250                 2.5250
 Red. Mass:      12.0000                12.0000                12.0000
 IR Intens:       21.918                 21.920                 21.920
 Frequency:       606.51                 606.51                 606.52
 Force Cnst:      2.6008                 2.6008                 2.6009
 Red. Mass:      12.0000                12.0000                12.0000
 IR Intens:        0.000                  0.000                  0.000
 Frequency:       700.48                 700.48                 700.49
 Force Cnst:      3.4691                 3.4692                 3.4692
 Red. Mass:      12.0000                12.0000                12.0000
 IR Intens:        0.000                  0.000                  0.000
 Frequency:       700.64                 700.64                 749.07
 Force Cnst:      3.4707                 3.4708                 3.9671
 Red. Mass:      12.0000                12.0000                12.0000
 IR Intens:        0.000                  0.000                  0.000
 Frequency:       749.07                 749.07                 749.12
 Force Cnst:      3.9671                 3.9672                 3.9676
 Red. Mass:      12.0000                12.0000                12.0000
 IR Intens:        0.000                  0.000                  0.000
 Frequency:       749.12                 753.97                 753.98
 Force Cnst:      3.9677                 4.0192                 4.0193
 Red. Mass:      12.0000                12.0000                12.0000
 IR Intens:        0.000                  0.004                  0.004
 Frequency:       753.98                 761.73                 761.73
 Force Cnst:      4.0193                 4.1024                 4.1024
 Red. Mass:      12.0000                12.0000                12.0000
 IR Intens:        0.004                  0.000                  0.000
 Frequency:       761.74                 775.85                 775.96
 Force Cnst:      4.1024                 4.2559                 4.2571
 Red. Mass:      12.0000                12.0000                12.0000
 IR Intens:        0.000                  0.000                  0.001
 Frequency:       775.97                 775.97                 777.67
 Force Cnst:      4.2571                 4.2572                 4.2759
 Red. Mass:      12.0000                12.0000                12.0000
 IR Intens:        0.001                  0.001                  0.001
 Frequency:       777.68                 777.68                 777.74
 Force Cnst:      4.2759                 4.2760                 4.2766
 Red. Mass:      12.0000                12.0000                12.0000
 IR Intens:        0.001                  0.001                  0.000
 Frequency:       777.74                 790.11                 790.51
 Force Cnst:      4.2766                 4.4137                 4.4182
 Red. Mass:      12.0000                12.0000                12.0000
 IR Intens:        0.000                  0.000                  0.000
 Frequency:       790.51                 790.51                 791.45
 Force Cnst:      4.4182                 4.4182                 4.4287
 Red. Mass:      12.0000                12.0000                12.0000
 IR Intens:        0.000                  0.000                  0.000
 Frequency:       791.45                 791.46                 792.11
 Force Cnst:      4.4288                 4.4288                 4.4361
 Red. Mass:      12.0000                12.0000                12.0000
 IR Intens:        0.000                  0.000                  0.000
 Frequency:       802.28                 802.28                 803.51
 Force Cnst:      4.5508                 4.5508                 4.5648
 Red. Mass:      12.0000                12.0000                12.0000
 IR Intens:        0.000                  0.000                  0.000
 Frequency:       803.51                 803.51                 833.45
 Force Cnst:      4.5648                 4.5648                 4.9112
 Red. Mass:      12.0000                12.0000                12.0000
 IR Intens:        0.000                  0.000                  0.000
 Frequency:       833.45                 833.45                 867.51
 Force Cnst:      4.9113                 4.9113                 5.3209
 Red. Mass:      12.0000                12.0000                12.0000
 IR Intens:        0.000                  0.000                  0.000
 Frequency:       867.51                 867.52                 996.92
 Force Cnst:      5.3209                 5.3210                 7.0267
 Red. Mass:      12.0000                12.0000                12.0000
 IR Intens:        0.000                  0.000                  0.001
 Frequency:       996.92                 996.92                1000.09
 Force Cnst:      7.0267                 7.0267                 7.0715
 Red. Mass:      12.0000                12.0000                12.0000
 IR Intens:        0.001                  0.001                  0.000
 Frequency:      1002.83                1002.83                1002.83
 Force Cnst:      7.1102                 7.1102                 7.1102
 Red. Mass:      12.0000                12.0000                12.0000
 IR Intens:        0.000                  0.000                  0.000
 Frequency:      1003.70                1111.55                1112.58
 Force Cnst:      7.1226                 8.7355                 8.7518
 Red. Mass:      12.0000                12.0000                12.0000
 IR Intens:        0.000                  0.000                  0.000
 Frequency:      1112.58                1112.58                1152.58
 Force Cnst:      8.7518                 8.7518                 9.3924
 Red. Mass:      12.0000                12.0000                12.0000
 IR Intens:        0.000                  0.000                  0.000
 Frequency:      1152.59                1153.15                1153.16
 Force Cnst:      9.3924                 9.4017                 9.4017
 Red. Mass:      12.0000                12.0000                12.0000
 IR Intens:        0.000                  0.000                  0.000
 Frequency:      1153.16                1218.55                1218.55
 Force Cnst:      9.4017                10.4982                10.4982
 Red. Mass:      12.0000                12.0000                12.0000
 IR Intens:        0.000                  0.000                  0.000
 Frequency:      1218.55                1240.89                1240.90
 Force Cnst:     10.4983                10.8868                10.8869
 Red. Mass:      12.0000                12.0000                12.0000
 IR Intens:        0.000                 20.781                 20.781
 Frequency:      1240.90                1278.81                1278.81
 Force Cnst:     10.8869                11.5622                11.5623
 Red. Mass:      12.0000                12.0000                12.0000
 IR Intens:       20.781                  0.015                  0.015
 Frequency:      1278.81                1279.71                1279.72
 Force Cnst:     11.5623                11.5785                11.5787
 Red. Mass:      12.0000                12.0000                12.0000
 IR Intens:        0.015                  0.000                  0.000
 Frequency:      1318.42                1318.42                1319.55
 Force Cnst:     12.2897                12.2897                12.3108
 Red. Mass:      12.0000                12.0000                12.0000
 IR Intens:        0.000                  0.000                  0.000
 Frequency:      1319.55                1319.56                1335.97
 Force Cnst:     12.3108                12.3108                12.6190
 Red. Mass:      12.0000                12.0000                12.0000
 IR Intens:        0.000                  0.000                  0.000
 Frequency:      1335.97                1335.97                1362.04
 Force Cnst:     12.6190                12.6191                13.1163
 Red. Mass:      12.0000                12.0000                12.0000
 IR Intens:        0.000                  0.000                  0.000
 Frequency:      1362.04                1362.04                1363.82
 Force Cnst:     13.1163                13.1163                13.1506
 Red. Mass:      12.0000                12.0000                12.0000
 IR Intens:        0.000                  0.000                  0.000
 Frequency:      1374.74                1374.74                1374.75
 Force Cnst:     13.3621                13.3621                13.3621
 Red. Mass:      12.0000                12.0000                12.0000
 IR Intens:        0.000                  0.000                  0.000
 Frequency:      1375.80                1413.96                1413.96
 Force Cnst:     13.3826                14.1354                14.1354
 Red. Mass:      12.0000                12.0000                12.0000
 IR Intens:        0.000                  0.001                  0.001
 Frequency:      1413.97                1414.14                1414.14
 Force Cnst:     14.1354                14.1389                14.1390
 Red. Mass:      12.0000                12.0000                12.0000
 IR Intens:        0.001                  0.000                  0.000
 Frequency:      1427.66                1427.66                1427.66
 Force Cnst:     14.4105                14.4106                14.4106
 Red. Mass:      12.0000                12.0000                12.0000
 IR Intens:        0.000                  0.000                  0.000
 Frequency:      1503.12                1503.13                1503.13
 Force Cnst:     15.9742                15.9743                15.9743
 Red. Mass:      12.0000                12.0000                12.0000
 IR Intens:        0.000                  0.000                  0.000
 Frequency:      1503.24                1503.24                1511.89
 Force Cnst:     15.9767                15.9767                16.1612
 Red. Mass:      12.0000                12.0000                12.0000
 IR Intens:        0.000                  0.000                 54.723
 Frequency:      1511.89                1511.89                1517.69
 Force Cnst:     16.1612                16.1612                16.2853
 Red. Mass:      12.0000                12.0000                12.0000
 IR Intens:       54.724                 54.725                  0.060
 Frequency:      1517.69                1517.69                1519.69
 Force Cnst:     16.2854                16.2854                16.3284
 Red. Mass:      12.0000                12.0000                12.0000
 IR Intens:        0.061                  0.059                  0.000
 Frequency:      1558.41                1584.75                1584.75
 Force Cnst:     17.1710                17.7564                17.7564
 Red. Mass:      12.0000                12.0000                12.0000
 IR Intens:        0.000                  0.000                  0.000
 Frequency:      1584.76                1585.83                1606.04
 Force Cnst:     17.7565                17.7805                18.2367
 Red. Mass:      12.0000                12.0000                12.0000
 IR Intens:        0.000                  0.000                  0.000
 Frequency:      1606.05                1606.05                1663.24
 Force Cnst:     18.2368                18.2369                19.5588
 Red. Mass:      12.0000                12.0000                12.0000
 IR Intens:        0.000                  0.000                  0.002
 Frequency:      1663.25                1663.25                1663.29
 Force Cnst:     19.5589                19.5591                19.5599
 Red. Mass:      12.0000                12.0000                12.0000
 IR Intens:        0.002                  0.002                  0.000
 Frequency:      1663.30                1669.48                1669.49
 Force Cnst:     19.5602                19.7058                19.7060
 Red. Mass:      12.0000                12.0000                12.0000
 IR Intens:        0.000                  0.000                  0.000
 Frequency:      1669.49                1669.89                1669.89
 Force Cnst:     19.7061                19.7154                19.7156
 Red. Mass:      12.0000                12.0000                12.0000
 IR Intens:        0.000                  0.000                  0.000

 STANDARD THERMODYNAMIC QUANTITIES AT   298.15 K  AND     1.00 ATM

   This Molecule has  0 Imaginary Frequencies
   Zero point vibrational energy:      242.618 kcal/mol

   Atom    1 Element C  Has Mass   12.00000
   Atom    2 Element C  Has Mass   12.00000
   Atom    3 Element C  Has Mass   12.00000
   Atom    4 Element C  Has Mass   12.00000
   Atom    5 Element C  Has Mass   12.00000
   Atom    6 Element C  Has Mass   12.00000
   Atom    7 Element C  Has Mass   12.00000
   Atom    8 Element C  Has Mass   12.00000
   Atom    9 Element C  Has Mass   12.00000
   Atom   10 Element C  Has Mass   12.00000
   Atom   11 Element C  Has Mass   12.00000
   Atom   12 Element C  Has Mass   12.00000
   Atom   13 Element C  Has Mass   12.00000
   Atom   14 Element C  Has Mass   12.00000
   Atom   15 Element C  Has Mass   12.00000
   Atom   16 Element C  Has Mass   12.00000
   Atom   17 Element C  Has Mass   12.00000
   Atom   18 Element C  Has Mass   12.00000
   Atom   19 Element C  Has Mass   12.00000
   Atom   20 Element C  Has Mass   12.00000
   Atom   21 Element C  Has Mass   12.00000
   Atom   22 Element C  Has Mass   12.00000
   Atom   23 Element C  Has Mass   12.00000
   Atom   24 Element C  Has Mass   12.00000
   Atom   25 Element C  Has Mass   12.00000
   Atom   26 Element C  Has Mass   12.00000
   Atom   27 Element C  Has Mass   12.00000
   Atom   28 Element C  Has Mass   12.00000
   Atom   29 Element C  Has Mass   12.00000
   Atom   30 Element C  Has Mass   12.00000
   Atom   31 Element C  Has Mass   12.00000
   Atom   32 Element C  Has Mass   12.00000
   Atom   33 Element C  Has Mass   12.00000
   Atom   34 Element C  Has Mass   12.00000
   Atom   35 Element C  Has Mass   12.00000
   Atom   36 Element C  Has Mass   12.00000
   Atom   37 Element C  Has Mass   12.00000
   Atom   38 Element C  Has Mass   12.00000
   Atom   39 Element C  Has Mass   12.00000
   Atom   40 Element C  Has Mass   12.00000
   Atom   41 Element C  Has Mass   12.00000
   Atom   42 Element C  Has Mass   12.00000
   Atom   43 Element C  Has Mass   12.00000
   Atom   44 Element C  Has Mass   12.00000
   Atom   45 Element C  Has Mass   12.00000
   Atom   46 Element C  Has Mass   12.00000
   Atom   47 Element C  Has Mass   12.00000
   Atom   48 Element C  Has Mass   12.00000
   Atom   49 Element C  Has Mass   12.00000
   Atom   50 Element C  Has Mass   12.00000
   Atom   51 Element C  Has Mass   12.00000
   Atom   52 Element C  Has Mass   12.00000
   Atom   53 Element C  Has Mass   12.00000
   Atom   54 Element C  Has Mass   12.00000
   Atom   55 Element C  Has Mass   12.00000
   Atom   56 Element C  Has Mass   12.00000
   Atom   57 Element C  Has Mass   12.00000
   Atom   58 Element C  Has Mass   12.00000
   Atom   59 Element C  Has Mass   12.00000
   Atom   60 Element C  Has Mass   12.00000
   Molecular Mass:   720.000000 amu
   Principal axes and moments of inertia in amu*Bohr^2:
                             1           2           3
    Eigenvalues --    21618.60122 21618.60137 21618.60159
          X               0.99754     0.06959     0.00841
          Y              -0.07009     0.99032     0.11978
          Z               0.00000    -0.12008     0.99276
   Rotational Symmetry Number is   1
   The Molecule is an Asymmetric Top
   Translational Enthalpy:        0.889 kcal/mol
   Rotational Enthalpy:           0.889 kcal/mol
   Vibrational Enthalpy:        253.179 kcal/mol
   gas constant (RT):             0.592 kcal/mol
   Translational Entropy:        45.602  cal/mol.K
   Rotational Entropy:           37.555  cal/mol.K
   Vibrational Entropy:          49.676  cal/mol.K

   Total Enthalpy:              255.549 kcal/mol
   Total Entropy:               132.834  cal/mol.K
 Total job time:  14724.38s(wall), 98516.71s(cpu)
        *  Thank you very much for using Q-Chem.  Have a nice day.  *
